# vtk DataFile Version 2.0
L_bracket_3D, Created by Gmsh 4.15.0 
ASCII
DATASET UNSTRUCTURED_GRID
POINTS 132 double
0 0 0
60 0 0
60 5 0
5 5 0
5 40 0
0 40 0
0 0 10
60 0 10
60 5 10
5 5 10
5 40 10
0 40 10
5.999999999999086 0 0
11.99999999999583 0 0
17.99999999998493 0 0
23.99999999996168 0 0
29.99999999993912 0 0
35.99999999995072 0 0
41.999999999963 0 0
47.99999999997529 0 0
53.99999999998764 0 0
54.49999999997336 5 0
49.00000000000002 5 0
43.50000000004443 5 0
38.00000000008884 5 0
32.50000000013188 5 0
27.00000000010662 5 0
21.50000000007999 5 0
16.00000000005335 5 0
10.5000000000267 5 0
5 10.83333333330981 0
5 16.66666666661233 0
5 22.49999999991554 0
5 28.3333333332766 0
5 34.16666666663831 0
0 34.28571428571428 0
0 28.57142857142856 0
0 22.85714285714282 0
0 17.14285714285708 0
0 11.42857142857138 0
0 5.714285714285694 0
5.999999999999086 0 10
11.99999999999583 0 10
17.99999999998493 0 10
23.99999999996168 0 10
29.99999999993912 0 10
35.99999999995072 0 10
41.999999999963 0 10
47.99999999997529 0 10
53.99999999998764 0 10
54.49999999997336 5 10
49.00000000000002 5 10
43.50000000004443 5 10
38.00000000008884 5 10
32.50000000013188 5 10
27.00000000010662 5 10
21.50000000007999 5 10
16.00000000005335 5 10
10.5000000000267 5 10
5 10.83333333330981 10
5 16.66666666661233 10
5 22.49999999991554 10
5 28.3333333332766 10
5 34.16666666663831 10
0 34.28571428571428 10
0 28.57142857142856 10
0 22.85714285714282 10
0 17.14285714285708 10
0 11.42857142857138 10
0 5.714285714285694 10
0 0 4.999999999992411
60 0 4.999999999992411
60 5 4.999999999992411
5 5 4.999999999992411
5 40 4.999999999992411
0 40 4.999999999992411
2.5 37.11309523808815 0
2.5 31.33928571426443 0
57.12499999999025 2.5 0
2.5 25.56547619044088 0
2.5 19.79166666663194 0
2.5 14.01785714283765 0
2.5 8.244047619041723 0
20.9999999999733 0 5
26.9999999999504 0 5
14.99999999999038 0 5.000000000000004
32.99999999994493 0 5
9.387229858999147 0 5.075090660047401
38.99999999995685 0 5
44.99999999996916 0 5
50.61277014098205 0 5.075090660046801
4.108587201254583 0 5.092416336718854
55.49999999011823 0 5.700000005916087
57.30666665980004 0 2.499999999996205
60 2.5 7.499999999996207
60 2.5 2.499999999996205
46.24243070787558 5 4.954926265139868
35.24999998668807 5 4.951296178503469
24.20435041225997 5 4.818423624424887
13.25000000004005 5 5.236860292519852
29.78941353974934 5 5.015234176645061
51.74999999998668 5 5.236860279216362
40.74884006846962 5 4.981496776100387
18.74050755082555 5 4.779581158100497
9.155779566869832 5 4.046357544774115
55.844220435004 5 4.046357542712904
56.75231016069122 5 7.24412249999555
8.247689842553605 5 7.244122501098142
5 14.22117768142826 5.154551822284555
5 19.73362794277703 5.046610368327563
5 25.44020196840578 5.00719331566547
5 30.7841494539577 5.156177319832205
5 35.62500007118635 5.798611069556781
5 9.374999999979842 5.798611145666826
5 37.35931215890459 2.492669729357255
2.5 40 7.499999999996207
2.5 40 2.499999999996206
0 8.988341656406035 5.080892305061231
0 19.99999997239577 5.010875279816421
0 31.01165834365132 5.080892303705776
0 25.57516428985598 5.024998489300839
0 14.4248356971876 5.024998490966111
0 36.24579792008563 5.113910683607232
0 4.291020768570142 5.86128231905581
0 2.515269697075126 2.493673598058395
2.5 37.11309523808815 10
2.5 31.33928571426443 10
57.12499999999025 2.5 10
2.5 25.56547619044088 10
2.5 19.79166666663194 10
2.5 14.01785714283765 10
2.5 8.244047619041723 10

CELLS 544 2460
3 20 21 22
3 12 3 0
3 12 13 29
3 18 19 23
3 3 40 0
3 3 12 29
3 19 22 23
3 13 14 28
3 17 18 24
3 29 13 28
3 18 23 24
3 20 1 78
3 14 15 27
3 16 17 25
3 15 16 26
3 3 30 82
3 14 27 28
3 17 24 25
3 30 31 81
3 31 32 80
3 32 33 79
3 33 34 77
3 34 4 76
3 15 26 27
3 16 25 26
3 5 35 76
3 35 36 77
3 36 37 79
3 37 38 80
3 38 39 81
3 39 40 82
3 2 21 78
3 30 39 82
3 31 38 81
3 32 37 80
3 33 36 79
3 1 2 78
3 34 35 77
3 4 5 76
3 35 34 76
3 36 33 77
3 21 20 78
3 37 32 79
3 38 31 80
3 39 30 81
3 40 3 82
3 19 20 22
3 12 91 0
3 7 92 71
3 70 91 6
3 49 92 7
3 6 91 41
3 84 86 45
3 16 86 84
3 83 85 14
3 43 85 83
3 17 86 16
3 45 86 46
3 14 85 13
3 42 85 43
3 83 84 44
3 15 84 83
3 16 84 15
3 44 84 45
3 15 83 14
3 43 83 44
3 85 87 13
3 42 87 85
3 13 87 12
3 41 87 42
3 86 88 46
3 17 88 86
3 18 88 17
3 46 88 47
3 18 89 88
3 88 89 47
3 20 90 19
3 48 90 49
3 47 89 48
3 19 90 89
3 89 90 48
3 19 89 18
3 1 93 20
3 87 91 12
3 20 92 90
3 20 93 92
3 41 91 87
3 90 92 49
3 71 93 1
3 92 93 71
3 0 91 70
3 71 94 7
3 8 94 72
3 2 95 1
3 71 95 72
3 72 94 71
3 7 94 8
3 72 95 2
3 1 95 71
3 29 99 28
3 22 101 21
3 51 96 52
3 53 97 54
3 55 98 56
3 98 103 56
3 56 103 57
3 24 102 23
3 26 100 25
3 97 100 54
3 55 100 98
3 96 102 52
3 53 102 97
3 96 101 22
3 51 101 96
3 99 103 28
3 23 102 96
3 97 102 24
3 25 100 97
3 98 100 26
3 57 103 99
3 73 104 3
3 2 105 72
3 3 104 29
3 21 105 2
3 54 100 55
3 52 102 53
3 28 103 27
3 27 103 98
3 25 97 24
3 27 98 26
3 23 96 22
3 50 101 51
3 57 99 58
3 50 106 101
3 99 107 58
3 101 106 105
3 104 107 99
3 29 104 99
3 101 105 21
3 8 106 50
3 58 107 9
3 72 106 8
3 9 107 73
3 73 107 104
3 105 106 72
3 30 113 3
3 73 113 9
3 10 112 74
3 63 112 10
3 9 113 59
3 32 110 109
3 109 110 61
3 33 110 32
3 61 110 62
3 108 109 60
3 31 109 108
3 60 109 61
3 32 109 31
3 31 108 30
3 59 108 60
3 110 111 62
3 33 111 110
3 34 111 33
3 62 111 63
3 108 113 30
3 34 112 111
3 34 114 112
3 4 114 34
3 111 112 63
3 59 113 108
3 74 114 4
3 112 114 74
3 3 113 73
3 74 115 10
3 11 115 75
3 5 116 4
3 74 116 115
3 115 116 75
3 10 115 11
3 4 116 74
3 75 116 5
3 35 122 5
3 75 122 11
3 6 123 70
3 69 123 6
3 11 122 64
3 38 118 37
3 68 117 69
3 64 119 65
3 119 120 65
3 68 121 117
3 65 120 66
3 67 121 68
3 38 121 118
3 118 120 37
3 118 121 67
3 66 120 118
3 39 121 38
3 37 120 36
3 36 120 119
3 117 121 39
3 40 117 39
3 36 119 35
3 66 118 67
3 40 124 123
3 40 123 117
3 119 122 35
3 0 124 40
3 117 123 69
3 64 122 119
3 70 124 0
3 123 124 70
3 5 122 75
3 49 50 51
3 41 9 6
3 41 42 58
3 47 48 52
3 6 9 69
3 9 41 58
3 48 51 52
3 42 43 57
3 46 47 53
3 42 57 58
3 47 52 53
3 49 7 127
3 43 44 56
3 45 46 54
3 44 45 55
3 9 59 131
3 43 56 57
3 46 53 54
3 59 60 130
3 60 61 129
3 61 62 128
3 62 63 126
3 63 10 125
3 44 55 56
3 45 54 55
3 11 64 125
3 64 65 126
3 65 66 128
3 66 67 129
3 67 68 130
3 68 69 131
3 8 50 127
3 59 68 131
3 60 67 130
3 61 66 129
3 62 65 128
3 7 8 127
3 63 64 126
3 10 11 125
3 64 63 125
3 65 62 126
3 50 49 127
3 66 61 128
3 67 60 129
3 68 59 130
3 69 9 131
3 48 49 51
4 90 22 19 96
4 90 101 51 49
4 91 41 73 9
4 131 113 9 73
4 110 118 32 109
4 52 48 96 51
4 121 81 108 117
4 89 52 102 47
4 109 121 60 67
4 92 101 50 106
4 41 6 9 91
4 116 4 76 5
4 112 77 34 111
4 55 45 84 100
4 101 92 20 105
4 30 113 108 117
4 3 91 73 124
4 125 11 122 64
4 90 48 96 89
4 77 111 119 36
4 81 30 108 117
4 107 41 91 87
4 48 90 96 51
4 110 37 32 118
4 6 123 9 91
4 103 28 14 85
4 112 125 122 64
4 77 35 119 122
4 110 33 32 79
4 118 37 80 38
4 28 13 14 85
4 103 99 28 85
4 99 13 28 85
4 83 103 27 14
4 48 52 96 89
4 121 109 60 108
4 115 116 122 75
4 127 92 7 49
4 70 123 6 91
4 35 114 76 122
4 125 112 122 115
4 99 13 85 87
4 47 52 102 53
4 66 65 128 120
4 85 57 42 43
4 131 59 9 113
4 44 83 56 98
4 55 44 84 45
4 33 110 111 120
4 59 113 130 108
4 120 65 111 119
4 126 112 119 64
4 99 57 85 103
4 30 113 117 82
4 81 39 30 117
4 103 83 27 98
4 3 82 40 73
4 118 37 32 80
4 41 107 73 9
4 61 66 118 129
4 118 66 67 129
4 65 126 119 64
4 79 37 120 36
4 92 94 7 71
4 67 121 60 130
4 124 3 40 73
4 110 66 118 61
4 94 92 7 127
4 101 92 50 49
4 94 127 7 8
4 125 11 10 115
4 25 100 86 97
4 112 125 63 10
4 125 112 115 10
4 112 122 119 64
4 118 129 67 109
4 101 90 20 92
4 123 124 40 73
4 120 65 128 62
4 122 116 5 75
4 41 107 58 42
4 109 80 31 38
4 114 4 116 74
4 76 116 5 122
4 92 72 105 94
4 59 68 130 113
4 110 79 37 120
4 2 105 21 78
4 112 74 115 10
4 121 81 31 108
4 90 22 101 20
4 89 88 102 18
4 68 121 67 130
4 41 107 9 58
4 87 12 104 29
4 3 12 73 91
4 123 40 117 73
4 83 103 85 43
4 103 57 85 43
4 44 55 98 56
4 79 110 37 32
4 54 100 97 86
4 91 123 73 124
4 23 89 102 18
4 109 118 80 38
4 55 54 45 100
4 26 100 16 25
4 82 39 40 117
4 100 16 86 84
4 101 50 51 49
4 23 96 102 89
4 83 103 43 56
4 35 114 122 34
4 90 101 96 51
4 111 63 126 62
4 65 111 119 126
4 120 65 62 111
4 111 120 119 36
4 54 46 86 97
4 121 81 39 38
4 112 114 122 74
4 121 118 67 109
4 87 12 73 104
4 33 120 111 36
4 63 112 126 64
4 110 120 62 111
4 24 88 102 97
4 121 109 31 38
4 3 12 91 124
4 3 12 124 0
4 39 30 117 82
4 107 87 73 104
4 122 11 115 75
4 81 121 31 38
4 110 61 118 109
4 99 13 29 28
4 129 109 60 67
4 61 118 109 129
4 45 100 86 84
4 2 105 78 95
4 88 47 102 53
4 90 19 89 96
4 65 111 126 62
4 131 68 113 117
4 88 89 102 47
4 118 32 109 80
4 114 116 122 74
4 103 57 43 56
4 81 121 39 117
4 40 82 117 73
4 110 66 120 118
4 113 82 73 117
4 2 72 105 95
4 113 3 73 82
4 87 107 73 91
4 70 123 91 124
4 12 3 73 104
4 12 87 73 91
4 30 3 113 82
4 109 121 31 108
4 96 52 102 89
4 59 68 113 131
4 61 129 109 60
4 71 1 93 95
4 1 78 93 95
4 85 99 87 42
4 46 54 53 97
4 26 15 16 84
4 105 101 21 20
4 46 88 86 97
4 99 57 58 42
4 23 24 18 102
4 35 114 34 76
4 35 76 5 122
4 131 123 73 9
4 114 4 34 76
4 112 74 122 115
4 88 24 18 17
4 114 112 122 34
4 114 4 76 116
4 57 99 85 42
4 111 112 119 126
4 110 33 79 120
4 19 22 23 96
4 63 112 111 126
4 88 24 17 97
4 17 25 16 86
4 17 24 25 97
4 114 116 76 122
4 81 30 31 108
4 113 131 117 73
4 123 91 73 9
4 131 123 117 73
4 103 28 27 14
4 54 45 100 86
4 15 83 27 14
4 100 26 16 84
4 109 32 31 80
4 15 26 27 98
4 83 15 27 98
4 121 118 109 38
4 131 68 117 69
4 123 131 117 69
4 90 22 96 101
4 88 46 53 97
4 88 17 86 97
4 90 22 20 19
4 88 46 47 53
4 121 60 130 108
4 127 50 8 106
4 88 102 97 53
4 110 120 128 62
4 110 66 128 120
4 17 25 86 97
4 44 55 84 98
4 3 124 40 0
4 105 78 93 20
4 92 105 93 20
4 78 1 93 20
4 54 46 45 86
4 61 110 128 62
4 105 72 92 95
4 78 105 93 95
4 25 100 16 86
4 12 3 104 29
4 19 96 23 89
4 98 26 100 84
4 66 110 128 61
4 83 103 56 98
4 83 103 14 85
4 87 13 12 29
4 92 50 49 127
4 1 2 78 95
4 94 127 8 106
4 101 90 92 49
4 24 88 18 102
4 23 19 89 18
4 71 72 92 94
4 83 44 84 98
4 92 72 71 95
4 72 94 8 106
4 50 92 106 127
4 94 92 106 105
4 125 112 63 64
4 15 26 98 84
4 98 55 84 100
4 11 125 122 115
4 70 91 0 124
4 15 83 84 98
4 77 33 34 111
4 72 94 106 105
4 91 12 0 124
4 77 112 122 119
4 101 92 105 106
4 92 94 106 127
4 44 83 43 56
4 35 77 119 36
4 101 22 21 20
4 60 59 130 108
4 37 110 120 118
4 112 77 111 119
4 112 77 122 34
4 77 35 122 34
4 48 52 89 47
4 79 33 36 120
4 77 33 111 36
4 92 71 93 95
4 115 116 74 122
4 105 21 78 20
4 99 107 104 87
4 123 131 69 9
4 107 41 73 91
4 48 90 51 49
4 6 123 69 9
4 107 41 87 42
4 105 92 93 95
4 42 107 99 87
4 42 99 107 58
4 87 29 99 13
4 99 29 87 104
4 68 117 130 113
4 68 130 117 121
4 108 130 117 113
4 108 117 130 121

CELL_TYPES 544
5
5
5
5
5
5
5
5
5
5
5
5
5
5
5
5
5
5
5
5
5
5
5
5
5
5
5
5
5
5
5
5
5
5
5
5
5
5
5
5
5
5
5
5
5
5
5
5
5
5
5
5
5
5
5
5
5
5
5
5
5
5
5
5
5
5
5
5
5
5
5
5
5
5
5
5
5
5
5
5
5
5
5
5
5
5
5
5
5
5
5
5
5
5
5
5
5
5
5
5
5
5
5
5
5
5
5
5
5
5
5
5
5
5
5
5
5
5
5
5
5
5
5
5
5
5
5
5
5
5
5
5
5
5
5
5
5
5
5
5
5
5
5
5
5
5
5
5
5
5
5
5
5
5
5
5
5
5
5
5
5
5
5
5
5
5
5
5
5
5
5
5
5
5
5
5
5
5
5
5
5
5
5
5
5
5
5
5
5
5
5
5
5
5
5
5
5
5
5
5
5
5
5
5
5
5
5
5
5
5
5
5
5
5
5
5
5
5
5
5
5
5
5
5
5
5
5
5
5
5
5
5
5
5
5
5
5
5
5
5
5
5
5
5
5
5
5
5
5
5
5
5
5
5
5
5
5
5
5
5
10
10
10
10
10
10
10
10
10
10
10
10
10
10
10
10
10
10
10
10
10
10
10
10
10
10
10
10
10
10
10
10
10
10
10
10
10
10
10
10
10
10
10
10
10
10
10
10
10
10
10
10
10
10
10
10
10
10
10
10
10
10
10
10
10
10
10
10
10
10
10
10
10
10
10
10
10
10
10
10
10
10
10
10
10
10
10
10
10
10
10
10
10
10
10
10
10
10
10
10
10
10
10
10
10
10
10
10
10
10
10
10
10
10
10
10
10
10
10
10
10
10
10
10
10
10
10
10
10
10
10
10
10
10
10
10
10
10
10
10
10
10
10
10
10
10
10
10
10
10
10
10
10
10
10
10
10
10
10
10
10
10
10
10
10
10
10
10
10
10
10
10
10
10
10
10
10
10
10
10
10
10
10
10
10
10
10
10
10
10
10
10
10
10
10
10
10
10
10
10
10
10
10
10
10
10
10
10
10
10
10
10
10
10
10
10
10
10
10
10
10
10
10
10
10
10
10
10
10
10
10
10
10
10
10
10
10
10
10
10
10
10
10
10
10
10
10
10
10
10
10
10
10
10
10
10
10
10
10
10
10
10
10
10
10
10
10
10
10
10
10
10
10
10
10
10
10
10
10
10
10
10
10
10

CELL_DATA 544
SCALARS CellEntityIds int 1
LOOKUP_TABLE default
11
11
11
11
11
11
11
11
11
11
11
11
11
11
11
11
11
11
11
11
11
11
11
11
11
11
11
11
11
11
11
11
11
11
11
11
11
11
11
11
11
11
11
11
11
11
11
11
11
11
11
11
11
11
11
11
11
11
11
11
11
11
11
11
11
11
11
11
11
11
11
11
11
11
11
11
11
11
11
11
11
11
11
11
11
11
11
11
11
11
11
11
11
11
11
11
11
11
11
11
11
11
11
11
11
11
11
11
11
11
11
11
11
11
11
11
11
11
11
11
11
11
11
11
11
11
11
11
11
11
11
11
11
11
11
11
11
11
11
11
11
11
11
11
11
11
11
11
11
11
11
11
11
11
11
11
11
11
11
11
11
11
11
11
11
11
11
11
11
11
11
11
11
11
11
11
11
11
11
11
11
11
11
11
11
11
11
11
11
11
11
11
11
11
11
11
11
11
11
11
11
11
11
11
11
11
11
11
11
11
11
11
11
12
12
12
12
12
12
12
12
12
12
12
12
12
12
12
12
12
12
12
12
12
12
12
12
12
12
12
12
12
12
12
12
12
12
12
12
12
12
12
12
12
12
12
12
12
12
12
1
1
1
1
1
1
1
1
1
1
1
1
1
1
1
1
1
1
1
1
1
1
1
1
1
1
1
1
1
1
1
1
1
1
1
1
1
1
1
1
1
1
1
1
1
1
1
1
1
1
1
1
1
1
1
1
1
1
1
1
1
1
1
1
1
1
1
1
1
1
1
1
1
1
1
1
1
1
1
1
1
1
1
1
1
1
1
1
1
1
1
1
1
1
1
1
1
1
1
1
1
1
1
1
1
1
1
1
1
1
1
1
1
1
1
1
1
1
1
1
1
1
1
1
1
1
1
1
1
1
1
1
1
1
1
1
1
1
1
1
1
1
1
1
1
1
1
1
1
1
1
1
1
1
1
1
1
1
1
1
1
1
1
1
1
1
1
1
1
1
1
1
1
1
1
1
1
1
1
1
1
1
1
1
1
1
1
1
1
1
1
1
1
1
1
1
1
1
1
1
1
1
1
1
1
1
1
1
1
1
1
1
1
1
1
1
1
1
1
1
1
1
1
1
1
1
1
1
1
1
1
1
1
1
1
1
1
1
1
1
1
1
1
1
1
1
1
1
1
1
1
1
1
1
1
1
1
1
1
1
1
1
1
1
1
1
1
1
1
1
1
1
1
1
1
1
1
1
1
1
1
1
1
1
