# vtk DataFile Version 2.0
L_bracket_2D, Created by Gmsh 4.15.0 
ASCII
DATASET UNSTRUCTURED_GRID
POINTS 121 double
0 0 0
60 0 0
60 5 0
5 5 0
5 40 0
0 40 0
2.499999999999128 0 0
4.999999999998527 0 0
7.499999999999777 0 0
9.999999999997673 0 0
12.4999999999954 0 0
14.99999999999312 0 0
17.49999999998691 0 0
19.99999999997723 0 0
22.49999999996755 0 0
24.99999999995787 0 0
27.49999999994819 0 0
29.99999999993921 0 0
32.49999999994364 0 0
34.99999999994876 0 0
37.49999999995389 0 0
39.99999999995901 0 0
42.49999999996414 0 0
44.99999999996925 0 0
47.49999999997438 0 0
49.99999999997952 0 0
52.49999999998462 0 0
54.99999999998975 0 0
57.49999999999487 0 0
60 2.499999999996199 0
57.49999999998789 5 0
54.99999999997578 5 0
52.49999999997174 5 0
49.99999999999193 5 0
47.50000000001211 5 0
45.0000000000323 5 0
42.50000000005248 5 0
40.00000000007267 5 0
37.50000000009285 5 0
35.00000000011304 5 0
32.50000000013183 5 0
30.00000000012111 5 0
27.500000000109 5 0
25.00000000009689 5 0
22.50000000008477 5 0
20.00000000007267 5 0
17.50000000006056 5 0
15.00000000004844 5 0
12.50000000003633 5 0
10.00000000002422 5 0
7.500000000012115 5 0
5 7.499999999993135 0
5 9.999999999980869 0
5 12.49999999996766 0
5 14.99999999995445 0
5 17.49999999994124 0
5 19.99999999992803 0
5 22.49999999991552 0
5 24.99999999992699 0
5 27.49999999993916 0
5 29.99999999995133 0
5 32.4999999999635 0
5 34.99999999997566 0
5 37.49999999998783 0
2.5 40 0
0 37.5 0
0 35 0
0 32.5 0
0 30 0
0 27.5 0
0 25 0
0 22.5 0
0 20 0
0 17.5 0
0 15 0
0 12.5 0
0 10 0
0 7.5 0
0 5 0
0 2.5 0
51.24999999998393 2.534792888376745 0
2.513190472176422 6.249999999997126 0
2.256350644728073 3.776944123689625 0
6.305822748424477 2.454580248994422 0
2.534792888375851 11.24999999998019 0
46.25000000001019 2.534792888378471 0
2.534792888378366 16.24999999996028 0
2.165063509461096 36.25 0
56.2499999999818 2.834936490531913 0
11.25000000000442 2.465207111624972 0
2.619182627960585 21.24690294447772 0
41.25000000003853 2.534792888383777 0
16.2500000000048 2.465207111620796 0
2.465207111624347 31.24999999998986 0
2.497323472362872 26.24392977126607 0
21.24999999999762 2.465207111616765 0
36.25000000006604 2.534792888389444 0
26.2560702287223 2.497323472370445 0
31.2530970555476 2.619182627966797 0
53.7499999999801 2.406152883657786 0
2.507997226758712 8.749999999991886 0
8.756645565292587 2.563534778401245 0
2.511597629459036 13.7499999999771 0
2.445246516478802 18.74963130287509 0
48.749999999992 2.511597629459203 0
2.593847116338224 33.74999999999396 0
13.75000000001375 2.488402370540961 0
2.493755097331203 28.74898829519107 0
43.75000000001114 2.511597629460375 0
18.75000000001663 2.488402370539593 0
38.7500000000305 2.511597629462203 0
23.7510117048045 2.493755097331201 0
33.75036869714644 2.445246516494026 0
28.7614974497392 2.436197538645289 0
2.436197538623363 23.73850255025463 0
3.956750381318499 2.085750273512112 0
1.939976905653504 1.939976905653699 0
58.35637083459746 1.834205707909146 0
3.165794292092673 38.35637083460039 0
58.55046966569015 3.555044837986254 0
1.444955162018303 38.55046966568973 0

CELLS 240 880
2 0 6
2 6 7
2 7 8
2 8 9
2 9 10
2 10 11
2 11 12
2 12 13
2 13 14
2 14 15
2 15 16
2 16 17
2 17 18
2 18 19
2 19 20
2 20 21
2 21 22
2 22 23
2 23 24
2 24 25
2 25 26
2 26 27
2 27 28
2 28 1
2 1 29
2 29 2
2 2 30
2 30 31
2 31 32
2 32 33
2 33 34
2 34 35
2 35 36
2 36 37
2 37 38
2 38 39
2 39 40
2 40 41
2 41 42
2 42 43
2 43 44
2 44 45
2 45 46
2 46 47
2 47 48
2 48 49
2 49 50
2 50 3
2 3 51
2 51 52
2 52 53
2 53 54
2 54 55
2 55 56
2 56 57
2 57 58
2 58 59
2 59 60
2 60 61
2 61 62
2 62 63
2 63 4
2 4 64
2 64 5
2 5 65
2 65 66
2 66 67
2 67 68
2 68 69
2 69 70
2 70 71
2 71 72
2 72 73
2 73 74
2 74 75
2 75 76
2 76 77
2 77 78
2 78 79
2 79 0
3 21 22 91
3 23 24 85
3 19 20 96
3 25 26 80
3 75 76 84
3 73 74 86
3 71 72 90
3 77 78 81
3 81 78 82
3 78 79 82
3 50 3 83
3 17 18 98
3 42 43 97
3 44 45 95
3 46 47 92
3 48 49 89
3 58 59 94
3 60 61 93
3 62 63 87
3 27 28 88
3 58 94 114
3 42 97 113
3 83 3 115
3 57 58 114
3 41 42 113
3 33 34 104
3 51 52 100
3 31 32 99
3 53 54 102
3 35 36 108
3 8 9 101
3 55 56 103
3 66 67 105
3 10 11 106
3 12 13 109
3 68 69 107
3 37 38 110
3 14 15 111
3 39 40 112
3 19 96 112
3 21 91 110
3 73 86 103
3 23 85 108
3 44 95 111
3 75 84 102
3 80 26 99
3 46 92 109
3 25 80 104
3 77 81 100
3 84 76 100
3 86 74 102
3 90 72 103
3 85 24 104
3 91 22 108
3 48 89 106
3 60 93 107
3 50 83 101
3 96 20 110
3 62 87 105
3 92 47 106
3 89 49 101
3 27 88 99
3 95 45 109
3 97 43 111
3 93 61 105
3 94 59 107
3 98 18 112
3 17 98 113
3 71 90 114
3 3 82 115
3 32 80 99
3 80 33 104
3 34 85 104
3 52 84 100
3 81 51 100
3 84 53 102
3 54 86 102
3 83 8 101
3 88 31 99
3 9 89 101
3 85 35 108
3 36 91 108
3 86 55 103
3 56 90 103
3 67 93 105
3 87 66 105
3 11 92 106
3 89 10 106
3 93 68 107
3 69 94 107
3 92 12 109
3 13 95 109
3 38 96 110
3 91 37 110
3 95 14 111
3 15 97 111
3 96 39 112
3 40 98 112
3 90 57 114
3 98 41 113
3 82 79 116
3 88 28 117
3 87 63 118
3 18 19 112
3 20 21 110
3 43 44 111
3 45 46 109
3 72 73 103
3 22 23 108
3 59 60 107
3 74 75 102
3 47 48 106
3 61 62 105
3 76 77 100
3 26 27 99
3 49 50 101
3 24 25 104
3 16 17 113
3 97 16 113
3 70 71 114
3 94 70 114
3 40 41 98
3 7 8 83
3 30 31 88
3 3 51 81
3 56 57 90
3 67 68 93
3 69 70 94
3 65 66 87
3 11 12 92
3 52 53 84
3 54 55 86
3 3 81 82
3 9 10 89
3 13 14 95
3 15 16 97
3 38 39 96
3 36 37 91
3 34 35 85
3 32 33 80
3 1 29 117
3 28 1 117
3 0 6 116
3 79 0 116
3 4 64 118
3 63 4 118
3 6 7 115
3 30 88 119
3 65 87 120
3 7 83 115
3 6 115 116
3 88 117 119
3 87 118 120
3 2 30 119
3 29 2 119
3 64 5 120
3 5 65 120
3 115 82 116
3 117 29 119
3 118 64 120

CELL_TYPES 240
3
3
3
3
3
3
3
3
3
3
3
3
3
3
3
3
3
3
3
3
3
3
3
3
3
3
3
3
3
3
3
3
3
3
3
3
3
3
3
3
3
3
3
3
3
3
3
3
3
3
3
3
3
3
3
3
3
3
3
3
3
3
3
3
3
3
3
3
3
3
3
3
3
3
3
3
3
3
3
3
5
5
5
5
5
5
5
5
5
5
5
5
5
5
5
5
5
5
5
5
5
5
5
5
5
5
5
5
5
5
5
5
5
5
5
5
5
5
5
5
5
5
5
5
5
5
5
5
5
5
5
5
5
5
5
5
5
5
5
5
5
5
5
5
5
5
5
5
5
5
5
5
5
5
5
5
5
5
5
5
5
5
5
5
5
5
5
5
5
5
5
5
5
5
5
5
5
5
5
5
5
5
5
5
5
5
5
5
5
5
5
5
5
5
5
5
5
5
5
5
5
5
5
5
5
5
5
5
5
5
5
5
5
5
5
5
5
5
5
5
5
5
5
5
5
5
5
5
5
5
5
5
5
5
5
5
5
5
5
5

CELL_DATA 240
SCALARS CellEntityIds int 1
LOOKUP_TABLE default
11
11
11
11
11
11
11
11
11
11
11
11
11
11
11
11
11
11
11
11
11
11
11
11
13
13
13
13
13
13
13
13
13
13
13
13
13
13
13
13
13
13
13
13
13
13
13
13
13
13
13
13
13
13
13
13
13
13
13
13
13
13
13
13
12
12
12
12
12
12
12
12
12
12
12
12
12
12
12
12
1
1
1
1
1
1
1
1
1
1
1
1
1
1
1
1
1
1
1
1
1
1
1
1
1
1
1
1
1
1
1
1
1
1
1
1
1
1
1
1
1
1
1
1
1
1
1
1
1
1
1
1
1
1
1
1
1
1
1
1
1
1
1
1
1
1
1
1
1
1
1
1
1
1
1
1
1
1
1
1
1
1
1
1
1
1
1
1
1
1
1
1
1
1
1
1
1
1
1
1
1
1
1
1
1
1
1
1
1
1
1
1
1
1
1
1
1
1
1
1
1
1
1
1
1
1
1
1
1
1
1
1
1
1
1
1
1
1
1
1
1
1
1
1
1
1
1
1
1
1
1
1
1
1
1
1
1
1
1
1
